HEADER
"PSFversion" "1.00"
"design" "(\"EE_140_240A_Final_Project\" \"EE_140_240A_Sp25_System\" \"schematic\" \"\")"
"simulator" "spectre"
"temperature" "27"
"host" ""
"date" "May  6 10:23:11 2025"
"title" ""
"analysisList" "()"
END
