HEADER
"PSFversion" "1.00"
"design" "(\"EE_140_240A_Final_Project\" \"EE_140_240A_Sp25_System\" \"schematic\" \"\")"
"simulator" "spectre"
"temperature" "27"
"host" ""
"date" "May  5 19:15:37 2025"
"title" ""
"analysisList" "()"
END
