HEADER
"PSFversion" "1.00"
"I13n" "swy_PGA_mockup_schematic"
"X_MUXn" "mux_mockup_schematic"
"I8n" "swy_BGR_mockup_schematic"
"I9n" "swy_AREG_mockup_schematic"
"I10n" "swy_DREG_mockup_schematic"
"X_DIV4n" "VBATDIV4_mockup_schematic"
"X_ADCn" "ADC_mockup_schematic"
"CLK_ADCv" ":1v"
"CLK_PGA1v" ":2v"
"CLK_PGA2v" ":3v"
"COMPv" ":4v"
"D<7>v" ":5v"
"D<6>v" ":6v"
"D<5>v" ":7v"
"D<4>v" ":8v"
"D<3>v" ":9v"
"D<2>v" ":10v"
"D<1>v" ":11v"
"D<0>v" ":12v"
"EXT_IN<0>v" ":13v"
"EXT_IN<1>v" ":14v"
"G<2>v" ":15v"
"G<1>v" ":16v"
"G<0>v" ":17v"
"S<1>v" ":18v"
"S<0>v" ":19v"
"VBATv" ":20v"
"VBATDIV4v" ":21v"
"VDACv" ":22v"
"VDDAv" ":23v"
"VDDDv" ":24v"
"VPTATv" ":25v"
"VSSv" ":26v"
