HEADER
"PSFversion" "1.00"
"I0n" "TG"
"I1n" "inverter_adc"
"Voutv" ":1v"
"GNDv" ":2v"
"VDDv" ":3v"
"selv" ":4v"
"Vinv" ":5v"
