HEADER
"PSFversion" "1.00"
"I0n" "bandgap"
"VBATv" ":1v"
"VBGv" ":2v"
"VPTATv" ":3v"
"VREF_ADCv" ":4v"
"VSSv" ":5v"
