HEADER
"PSFversion" "1.00"
"C8n C4n C6n C5n C7n" "analogLib_cap_spectre"
"I8n I2n I0n" "AND2HDX0_dupe_schematic"
"I12n I11n I6n" "OR2HDX0_dupe_schematic"
"I15n I14n I7n I1n I13n I9n I10n" "invr_dupe_schematic"
"NM5n NM3n NM17n NM8n NM1n NM2n NM0n NM7n NM18n NM6n" "sky130_fd_pr_main_nfet_01v8_spectre"
"I17n" "swy_opamp_mockup_schematic"
"PM11n PM0n PM1n PM2n PM12n PM3n" "sky130_fd_pr_main_pfet_01v8_spectre"
"CLK1v" ":1v"
"CLK2v" ":2v"
"G<2>v" ":3v"
"G<1>v" ":4v"
"G<0>v" ":5v"
"VDDv" ":6v"
"VINv" ":7v"
"VOUTv" ":8v"
"VSSv" ":9v"
