HEADER
"PSFversion" "1.00"
"__NEXT_FILE__" "Test_EE_140_240A_Final_Project_EE_140_240A_Sp25_System_schematic"
