HEADER
"PSFversion" "1.00"
"R0n R1n" "analogLib_res_spectre"
"VBATv" ":1v"
"VBATDIV4v" ":2v"
"VSSv" ":3v"
